VARIABLES = "x", "value"
ZONE T="Boundary Layer Data"
0.9990164 0.0016110425671021873
1.0 0.0008015725885966922
0.9990048 0.0008173014246326479
0.9979793 0.0008309787788529904
0.9969225 0.000843223885966885
0.9958335 0.0008545495643760398
0.9947115 0.000864872204877875
0.9935555 0.000874398090060949
0.9923646 0.000883379556193485
0.9911378 0.0008911588622247677
0.9898742 0.0008983454484599008
0.9885728 0.0009047130922745782
0.9872326 0.0009104403681932698
0.9858526 0.0009159196844574345
0.9844317 0.0009205907327200886
0.982969 0.0009245322100125061
0.9814633 0.000928368615729676
0.9799136 0.0009309943573806202
0.9783188 0.0009333918061612662
0.9766777 0.0009353859137742292
0.9749893 0.0009368684427421316
0.9732524 0.0009376128970666284
0.9714658 0.0009377824030816911
0.9696285 0.0009373653223253564
0.9677391 0.0009364814734994476
0.9657966 0.0009345144197851555
0.9637998 0.0009323065811331991
0.9617475 0.0009291957976685693
0.9596384 0.0009254188729968692
0.9574713 0.0009211343410200462
0.9552451 0.0009160014728104133
0.9529585 0.0009104133951395089
0.9506102 0.000903911816050567
0.9481991 0.0008970568258732673
0.945724 0.0008890674213244663
0.9431835 0.0008804936023363954
0.9405765 0.0008715080608710334
0.9379018 0.0008612120588288644
0.935158 0.0008468667062518897
0.932344 0.0008354504177023581
0.9294586 0.0008236120771793095
0.9265005 0.0008111874313556235
0.9234685 0.0007979272693269937
0.9203615 0.0007839896255978217
0.9171781 0.0007695814647209864
0.9139173 0.0007528421555366533
0.9105778 0.0007372905129971311
0.9071584 0.0007214395319193466
0.903658 0.0007048666567300136
0.9000755 0.0006877204710710981
0.8964096 0.0006705368941443627
0.8926593 0.0006528535981298355
0.8888235 0.0006347575263374519
0.8849011 0.0006163578697795398
0.880891 0.000598181360742673
0.8767921 0.0005794134368682815
0.8726034 0.0005603947978299826
0.8683238 0.0005425537082501865
0.8639524 0.0005235424859929721
0.8594882 0.0005045214950019067
0.8549303 0.00048674747975066204
0.8502778 0.0004677221285660503
0.8455299 0.0004503734059734405
0.8406858 0.0004317758910929503
0.8357447 0.00041327910803143955
0.8307058 0.00039620240164510494
0.8255686 0.0003782003511278557
0.8203324 0.0003615276639232364
0.8149967 0.00034435712869028894
0.809561 0.0003283680532484231
0.804025 0.00031268779456835515
0.7983883 0.00029617184252983943
0.7926508 0.00028117306177179803
0.7868124 0.0002663722498571747
0.7808731 0.00025217434317868136
0.7748329 0.0002369140646255564
0.7686922 0.00022370485249907732
0.7624513 0.00021101384491376807
0.7561107 0.0001992811671366926
0.7496711 0.0001882283896697433
0.7431332 0.0001775159379347092
0.736498 0.0001670961656792165
0.7297667 0.00015931040500588003
0.7229406 0.00015452106355613032
0.7160212 0.0001513044624563374
0.7090101 0.00014815894964379626
0.7019091 0.00014490478372684344
0.6947203 0.0001414898085677382
0.687446 0.00013819675174638762
0.6800884 0.00013500358604788833
0.6726503 0.00013203513552167265
0.6651343 0.00012902774699313744
0.6575435 0.00012611138163944822
0.649881 0.00012334362390997822
0.6421501 0.0001209863375639436
0.6343541 0.00011858319186445847
0.6264968 0.00011633497328418778
0.6185818 0.00011450598110503379
0.6106131 0.00011256001701798643
0.6025945 0.00011082603368253744
0.5945302 0.00010919936067532311
0.5864244 0.00010769422093814074
0.5782812 0.0001062984514680805
0.5701049 0.00010505437826880193
0.5619 0.00010393446495159499
0.5536707 0.00010290053697566442
0.5454215 0.00010200057300433436
0.5371568 0.00010117471677427975
0.5288809 0.00010041648184776803
0.5205984 9.984608878996413e-05
0.5123136 9.927293708519227e-05
0.5040308 9.878635617128592e-05
0.4957543 9.83786145750699e-05
0.4874885 9.797963213218945e-05
0.4792375 9.763935520037414e-05
0.4710055 9.732907422714432e-05
0.4627965 9.705624756692974e-05
0.4546146 9.682592661607587e-05
0.4464636 9.658455671620731e-05
0.4383475 9.635484535115902e-05
0.43027 9.611693480013179e-05
0.4222347 9.587711183165676e-05
0.4142454 9.565120943494875e-05
0.4063054 9.540251271170357e-05
0.3984181 9.514881247340705e-05
0.3905869 9.48813195360116e-05
0.382815 9.457266936407476e-05
0.3751054 9.423089336308595e-05
0.3674611 9.386512548662788e-05
0.3598849 9.347711007983441e-05
0.3523798 9.3051985188481e-05
0.3449482 9.260549817095342e-05
0.3375927 9.211915907760889e-05
0.3303157 9.161988638139949e-05
0.3231195 9.108389270939422e-05
0.3160063 9.051370223318922e-05
0.3089781 8.992207278678236e-05
0.3020368 8.929945805417139e-05
0.2951843 8.864482250390427e-05
0.288422 8.796220489233042e-05
0.2817517 8.73092052148853e-05
0.2751747 8.659059237865769e-05
0.2686922 8.57910932565527e-05
0.2623055 8.498544857355937e-05
0.2560156 8.417875993118178e-05
0.2498233 8.324927191595192e-05
0.2437296 8.237019895232303e-05
0.237735 8.147838642588381e-05
0.2318401 8.05688232228457e-05
0.2260453 7.970787664988781e-05
0.2203511 7.87655559867087e-05
0.2147575 7.774414957177567e-05
0.2092647 7.67737277511339e-05
0.2038728 7.579024620207621e-05
0.1985815 7.483382241953767e-05
0.1933908 7.383589899558911e-05
0.1883004 7.287030153951898e-05
0.1833099 7.185964569688237e-05
0.1784188 7.083552841859963e-05
0.1736267 6.982469763198801e-05
0.1689329 6.881536064745326e-05
0.1643367 6.780548937573496e-05
0.1598374 6.676955960943809e-05
0.1554342 6.582649446716633e-05
0.1511263 6.482428064565025e-05
0.1469126 6.378956185165366e-05
0.1427922 6.280441664529244e-05
0.1387641 6.182662725458637e-05
0.1348272 6.0856981656637205e-05
0.1309804 5.996171205234949e-05
0.1272225 5.900884594018805e-05
0.1235523 5.8063243566697454e-05
0.1199687 5.701699252165601e-05
0.1164702 5.608524645825138e-05
0.1130558 5.516239743943483e-05
0.1097241 5.424873624669328e-05
0.1064737 5.3470226721922345e-05
0.1033033 5.258435327014723e-05
0.1002117 5.164512406765189e-05
0.09719734 5.0782714734603495e-05
0.09425896 4.9934866341207784e-05
0.09139515 4.909579884788972e-05
0.08860453 4.8360653800305945e-05
0.08588572 4.754280911372016e-05
0.08323732 4.673089437981588e-05
0.08065795 4.592672025751516e-05
0.07814623 4.5076608945647555e-05
0.0757008 4.4303825938408255e-05
0.07332028 4.358264433211685e-05
0.07100333 4.282462683231863e-05
0.06874858 4.2075571527478155e-05
0.06655471 4.132672052897665e-05
0.06442035 4.060958560291428e-05
0.06234424 3.989760705647348e-05
0.06032503 3.9183223156666906e-05
0.05836144 3.849966511237776e-05
0.0564522 3.781456049116593e-05
0.05459604 3.7135347298000935e-05
0.05279173 3.646641497905241e-05
0.05103804 3.581219817800917e-05
0.04933375 3.5162559131992496e-05
0.04767769 3.4586743490546476e-05
0.04606868 3.396314892379876e-05
0.04450558 3.335067479934203e-05
0.04298723 3.274727582281422e-05
0.04151253 3.214679608017248e-05
0.04008039 3.1580156460108364e-05
0.03868971 3.101408400304185e-05
0.03733944 3.0447918821339893e-05
0.03602856 2.990499959070932e-05
0.03475602 2.9365933648132152e-05
0.03352084 2.8833525285700245e-05
0.03232203 2.8331299020358045e-05
0.03115861 2.7813699195460745e-05
0.03002967 2.7304896312932784e-05
0.02893429 2.680426256145134e-05
0.02787153 2.6312222447395568e-05
0.02684057 2.5817598729173906e-05
0.02584048 2.535564832082339e-05
0.02487049 2.4878926415485423e-05
0.02392973 2.440576611851587e-05
0.02301743 2.3937013071985048e-05
0.02213281 2.3483940873625164e-05
0.02127508 2.3034743824870743e-05
0.02044353 2.2582681647935245e-05
0.01963742 2.2132691477634446e-05
0.01885604 2.168577495065738e-05
0.0180987 2.1232727173328804e-05
0.01736475 2.0791318264117166e-05
0.0166535 2.0379577687974757e-05
0.01596436 1.994016439811599e-05
0.01529669 1.9496133090970632e-05
0.01464989 1.9057394862279413e-05
0.01402342 1.8619443780443843e-05
0.01341668 1.8211412389804545e-05
0.01282916 1.7777206888982738e-05
0.01226035 1.734700070368684e-05
0.01170969 1.6919157365275397e-05
0.01117671 1.6539770859335787e-05
0.01066093 1.611043767893171e-05
0.01016187 1.5687611720711877e-05
0.009679103 1.525897775288926e-05
0.009212199 1.4838451718924113e-05
0.008760719 1.4451994613746287e-05
0.008324253 1.4027170842561042e-05
0.007902439 1.3601950077532923e-05
0.00749494 1.3178744395372235e-05
0.00710138 1.2808070518470537e-05
0.006721435 1.2398306367191596e-05
0.006354793 1.1995278955342742e-05
0.006001146 1.1590348462525412e-05
0.005660213 1.1272087988778993e-05
0.005331664 1.0884332746248477e-05
0.005015253 1.0493069053358388e-05
0.004710797 1.0128028266772209e-05
0.004417975 9.823884880133264e-06
0.004136562 9.464242501263203e-06
0.00386639 9.112935368593825e-06
0.003607264 8.843869441783356e-06
0.003358972 8.5115239163271e-06
0.003121325 8.186047437655467e-06
0.002894167 7.870201861182528e-06
0.002677355 7.637315628410323e-06
0.002470752 7.345472299275983e-06
0.002274213 7.064674060827671e-06
0.002087564 6.7894713417982244e-06
0.001910677 6.602525112524136e-06
0.001743446 6.347196499175526e-06
0.001585682 6.095884602620869e-06
0.001437233 5.849592333241457e-06
0.001297976 5.626291474713752e-06
0.001167683 5.508614069948982e-06
0.001046133 5.3258665541127855e-06
0.0009331728 5.152030655807571e-06
0.0008285647 5.005905129687423e-06
0.0007320062 4.878198913563739e-06
0.0006432312 4.777738394098456e-06
0.0005619601 4.803812119555081e-06
0.0004878475 4.739574830374636e-06
0.0004205406 4.683592348597573e-06
0.0003596914 4.635451984674183e-06
0.0003049527 4.598200589988205e-06
0.0002559744 4.571234718652418e-06
0.0002124075 4.5503548653726375e-06
0.0001738948 4.448212372178988e-06
0.0001400858 4.457180201937648e-06
0.0001106163 4.268242782159314e-06
8.514006e-05 3.787163243924887e-06
6.335066e-05 3.9484188556579545e-06
4.497154e-05 5.252057828387668e-06
2.973089e-05 6.7985082215632814e-06
1.733524e-05 8.957316219530859e-06
7.507507e-06 8.506791674726844e-06
-6.654066e-13 8.160760893549427e-06
-5.54642e-06 7.043857324965845e-06
-9.236621e-06 8.503781043742993e-06
-1.090682e-05 2.117720947521801e-05
-1.039699e-05 0.0005950273641571302
-7.542267e-06 0.0003204036872764528
-2.176718e-06 5.9124807514312374e-05
5.861312e-06 5.406786669710391e-06
1.673701e-05 5.1973417817241895e-06
3.063879e-05 5.146235241089148e-06
4.777627e-05 5.1668840548639605e-06
6.835493e-05 5.183784332694417e-06
9.254462e-05 5.252381383829799e-06
0.0001205071 5.341255576095802e-06
0.0001524337 5.426004702577906e-06
0.0001885378 5.515596863208657e-06
0.0002290317 5.610788415457834e-06
0.0002741233 5.713138087475783e-06
0.0003240118 5.818650694916667e-06
0.0003788754 5.87322777628396e-06
0.0004388975 5.98555993277164e-06
0.0005043107 6.106319743161227e-06
0.000575352 6.226256254510452e-06
0.000652226 6.360802155095511e-06
0.0007351329 6.496639852543119e-06
0.0008243063 6.638250159858411e-06
0.0009199789 6.732449240660082e-06
0.001022357 6.881758326851231e-06
0.001131653 7.039146244420206e-06
0.00124812 7.200003316265257e-06
0.00137201 7.363461823353508e-06
0.001503571 7.476466656741769e-06
0.00164308 7.646861143311186e-06
0.001790831 7.823628481060291e-06
0.001947085 8.001716693523224e-06
0.002112105 8.179822708666987e-06
0.002286202 8.354852764383747e-06
0.002469704 8.502209312584266e-06
0.002662945 8.69650467730039e-06
0.002866209 8.891538841229779e-06
0.00307983 9.086191561626446e-06
0.003304217 9.293094263547833e-06
0.003539658 9.499663511221206e-06
0.003786493 9.647125029431625e-06
0.004045244 9.863751952436026e-06
0.00431625 1.0090316342042796e-05
0.004599854 1.0315569229233899e-05
0.004896524 1.0545435238579967e-05
0.005206688 1.0778891563294211e-05
0.005530778 1.0955925870626665e-05
0.00586926 1.1196294004106995e-05
0.006222626 1.1440925239797129e-05
0.006591374 1.1699844264173064e-05
0.006975988 1.1963099928322504e-05
0.007376967 1.2220617468594218e-05
0.007794871 1.2451851585497857e-05
0.008230256 1.273688540405086e-05
0.008683705 1.3025481176095237e-05
0.009155809 1.3314611826970851e-05
0.00964714 1.362209657033707e-05
0.01015828 1.3891624880135921e-05
0.01068987 1.4216352157601837e-05
0.01124256 1.455811630969885e-05
0.01181689 1.4904935944055609e-05
0.01241352 1.5247077522867623e-05
0.01303319 1.555365357519221e-05
0.01367656 1.5931316593821008e-05
0.01434431 1.6314606596288465e-05
0.01503714 1.670063173887334e-05
0.01575585 1.710177591399327e-05
0.01650118 1.7514145928016424e-05
0.01727387 1.7890969808678645e-05
0.0180747 1.8337151489539382e-05
0.01890447 1.8811150204999233e-05
0.01976383 1.9262690334613126e-05
0.02065373 1.9738973988950276e-05
0.02157492 2.021583176902331e-05
0.02252822 2.0716516770318706e-05
0.02351452 2.1230562486620705e-05
0.02453465 2.173900724914196e-05
0.02558958 2.2276890541173656e-05
0.02668017 2.2797857424336652e-05
0.02780731 2.3359854311016472e-05
0.02897197 2.3930295530047797e-05
0.03017506 2.4505640727086893e-05
0.03141756 2.5073411917898535e-05
0.03270052 2.5647755935803398e-05
0.03402487 2.6239777650582635e-05
0.03539169 2.6842527432866436e-05
0.03680202 2.7451769659240765e-05
0.03825697 2.8060220964548747e-05
0.03975766 2.86503747958399e-05
0.0413052 2.9268555580668285e-05
0.04290075 2.989461954508868e-05
0.04454551 3.0535704625491647e-05
0.04624068 3.118696631575861e-05
0.04798741 3.182891802500884e-05
0.04978699 3.246774554417445e-05
0.05164058 3.3118687876624514e-05
0.05354953 3.377875528298924e-05
0.05551509 3.444180770266737e-05
0.05753856 3.5093251690925084e-05
0.05962132 3.570803764990725e-05
0.06176469 3.6369921535834265e-05
0.06397006 3.7043954837120135e-05
0.06623879 3.771345158167153e-05
0.06857228 3.838073946067259e-05
0.070972 3.906244756427779e-05
0.07343932 3.972889923859561e-05
0.0759757 4.043470460257883e-05
0.07858254 4.113906320166184e-05
0.08126124 4.18385262600177e-05
0.08401329 4.2551775970181346e-05
0.08684009 4.327540057376357e-05
0.08974302 4.394229200874951e-05
0.09272355 4.469190720903784e-05
0.0957831 4.541582752479135e-05
0.09892308 4.613569810474315e-05
0.1021449 4.686114277941268e-05
0.10545 4.758693372156003e-05
0.1088397 4.830375233542047e-05
0.1123153 4.901000623369286e-05
0.1158784 4.9759189754801684e-05
0.11953 5.048173057327285e-05
0.1232717 5.1215546399352586e-05
0.1271045 5.192289579770218e-05
0.1310298 5.264280205561376e-05
0.1350488 5.3357665922217655e-05
0.1391626 5.408960127543717e-05
0.1433724 5.480630322924956e-05
0.1476792 5.551671602813269e-05
0.152084 5.62281702804648e-05
0.1565879 5.692319472553673e-05
0.1611918 5.763119357555292e-05
0.1658966 5.8325726563611184e-05
0.1707029 5.89540878523203e-05
0.1756117 5.9619922965203695e-05
0.1806236 6.030158347161079e-05
0.1857392 6.09768130191786e-05
0.190959 6.165768317208525e-05
0.1962833 6.232112585682244e-05
0.2017126 6.297481803815625e-05
0.2072471 6.362626170007085e-05
0.2128869 6.425692040290655e-05
0.2186321 6.48159845975897e-05
0.2244827 6.546129406073186e-05
0.2304385 6.608048486414692e-05
0.2364992 6.671653811498066e-05
0.2426644 6.736153748491822e-05
0.2489336 6.799227225628396e-05
0.2553061 6.861529446145724e-05
0.2617812 6.922309203904439e-05
0.2683579 6.984379535690362e-05
0.2750351 7.045532042115097e-05
0.2818118 7.108740413938882e-05
0.2886866 7.167986311346182e-05
0.2956579 7.233771646214853e-05
0.3027242 7.298330789271954e-05
0.3098837 7.362368688927938e-05
0.3171343 7.429106058690631e-05
0.3244741 7.497625750048869e-05
0.3319006 7.565564616087256e-05
0.3394116 7.635050390536074e-05
0.3470044 7.705756820376543e-05
0.3546764 7.777917602450583e-05
0.3624245 7.854299024115589e-05
0.3702459 7.936127618816837e-05
0.3781371 8.003943471000006e-05
0.3860949 8.082508694835948e-05
0.3941158 8.170767334358035e-05
0.402196 8.265908874599044e-05
0.4103318 8.364033248866795e-05
0.4185192 8.466239077307567e-05
0.4267542 8.5824588249357e-05
0.4350325 8.729812738639522e-05
0.4433499 8.854607052120018e-05
0.451702 8.984441205716754e-05
0.4600842 9.076395377229894e-05
0.4684921 9.217878152738472e-05
0.4769208 9.369321597886026e-05
0.4853659 9.528158317525356e-05
0.4938224 9.693476365410663e-05
0.5022856 9.867579681043134e-05
0.5107508 0.00010048759247642082
0.5192131 0.00010274442690110867
0.5276677 0.00010442003888231895
0.5361099 0.00010652574488409295
0.544535 0.00010850702020212557
0.5529382 0.0001107258371346627
0.5613148 0.00011296234916932157
0.5696605 0.00011531328245989979
0.5779706 0.00011774929174997528
0.5862408 0.00012029867622179585
0.594467 0.00012280558518481808
0.6026449 0.00012544890138896863
0.6107705 0.00012803774411997924
0.61884 0.00013056013243475424
0.6268495 0.00013304389735675448
0.6347957 0.00013791799845353018
0.6426749 0.00014591639824475662
0.650484 0.0001561710269589219
0.6582198 0.0001661955142152068
0.6658794 0.00017811244632687533
0.6734599 0.0001909922195005519
0.6809589 0.00020450192358873275
0.6883737 0.00021886766849389777
0.6957022 0.00023300490684139596
0.7029422 0.0002475926618966037
0.7100917 0.0002632560457757414
0.717149 0.00027832237969267916
0.7241124 0.0002937140396367234
0.7309804 0.0003103078928238757
0.7377516 0.00032595914283364857
0.744425 0.00034296185224322507
0.7509992 0.0003591183769651052
0.7574736 0.00037554009335195773
0.7638471 0.00039322626454281
0.7701194 0.0004109973018914004
0.7762897 0.00042760049507996627
0.7823577 0.0004458599298847403
0.7883231 0.0004627571746671085
0.7941858 0.00048108579275318863
0.7999457 0.0004996174671699747
0.8056026 0.000516657656378527
0.8111569 0.0005355224712101396
0.8166086 0.0005544152191820579
0.8219582 0.0005716818929379029
0.8272058 0.0005907646361932922
0.8323522 0.0006099263795913068
0.8373977 0.0006271342655453497
0.8423429 0.0006462734067273865
0.8471887 0.0006654094387860887
0.8519355 0.0006844277666139232
0.8565844 0.000701557626371935
0.8611361 0.0007210433056574847
0.8655915 0.0007402139243039088
0.8699516 0.0007590659934382045
0.8742174 0.0007762210516603295
0.87839 0.0007950492948926627
0.8824703 0.0008138360141477234
0.8864597 0.0008324366180866744
0.8903591 0.0008506291236498433
0.8941698 0.0008672683229324512
0.8978929 0.0008855327540671619
0.9015297 0.0009035802718384032
0.9050814 0.0009213584422461313
0.9085493 0.0009391312927453382
0.9119346 0.0009565348805440229
0.9152388 0.000972773871595671
0.9184632 0.0009902200306532677
0.921609 0.0010069723488367558
0.9246777 0.0010240381123426939
0.9276705 0.0010400764389851339
0.9305888 0.001056381308558706
0.9334339 0.0010725696310049497
0.9362073 0.0010880550075258527
0.9389101 0.001103044422435225
0.9415439 0.001119947086086116
0.94411 0.0011350717561962962
0.9466096 0.001150153341214314
0.9490443 0.001165599032096805
0.9514152 0.0011800648731650643
0.9537238 0.0011948787637741163
0.9559712 0.0012090574583707308
0.958159 0.001223352812043739
0.9602882 0.0012376118234484633
0.9623603 0.0012510416753889015
0.9643764 0.0012647936129737802
0.9663379 0.0012783690638533795
0.968246 0.0012963132871183793
0.9701019 0.0013100392907930117
0.9719069 0.0013239446962164132
0.9736621 0.001337604904323374
0.9753687 0.0013509820378441331
0.9770279 0.001365029447873306
0.9786409 0.0013781899113665197
0.9802086 0.0013925766273356686
0.9817324 0.0014055279877733088
0.9832131 0.0014198544661889892
0.984652 0.0014338237388829894
0.9860501 0.001448203056357031
0.9874083 0.00146197543228642
0.9887278 0.0014768706945377747
0.9900095 0.0014914767403879116
0.9912544 0.0015065043991877836
0.9924635 0.001522198656965742
0.9936377 0.0015374987671010934
0.9947779 0.001552553328876406
0.995885 0.0015683910163064897
0.9969598 0.0015834366070672692
0.9980033 0.0015980041264175159
