VARIABLES = "x", "value"
ZONE T="Boundary Layer Data"
0.9990164 1.6112527399529528
1.0 1.3475925459580755
0.9990048 1.353393458353522
0.9979793 1.3618472829526893
0.9969225 1.3703043154088164
0.9958335 1.3777741590039119
0.9947115 1.3844969483315135
0.9935555 1.3913868976013788
0.9923646 1.397121480373981
0.9911378 1.4030240183883003
0.9898742 1.4086537733445113
0.9885728 1.414231663771868
0.9872326 1.4196657715181926
0.9858526 1.4248563315077438
0.9844317 1.4302133944683335
0.982969 1.435359977162206
0.9814633 1.4401831429631746
0.9799136 1.4451653265379585
0.9783188 1.449974372081594
0.9766777 1.4548249043435624
0.9749893 1.45944958376604
0.9732524 1.4638877899027687
0.9714658 1.468662749233007
0.9696285 1.4728390031982843
0.9677391 1.4768847892795691
0.9657966 1.480948301487214
0.9637998 1.484682679293527
0.9617475 1.4883551970394784
0.9596384 1.4916183940236822
0.9574713 1.4951157380443763
0.9552451 1.4984731555353092
0.9529585 1.5010511349186637
0.9506102 1.5039762488540995
0.9481991 1.5065349128060164
0.945724 1.5087192878071165
0.9431835 1.5106235276582267
0.9405765 1.5124085967199343
0.9379018 1.513798430674099
0.935158 1.5155951113072448
0.932344 1.5167777928294588
0.9294586 1.5176419118069777
0.9265005 1.5181584610074392
0.9234685 1.5184685288072712
0.9203615 1.518857276748174
0.9171781 1.5187088587031252
0.9139173 1.5189084715654713
0.9105778 1.5183667722964018
0.9071584 1.517659069885584
0.903658 1.5170988657864777
0.9000755 1.5162476760860208
0.8964096 1.5144944033822119
0.8926593 1.5133486528617577
0.8888235 1.5120202425841216
0.8849011 1.5107606034656635
0.880891 1.5103314360991873
0.8767921 1.5091644845863015
0.8726034 1.507862063213746
0.8683238 1.5062312153082218
0.8639524 1.5053811881732926
0.8594882 1.504816536278989
0.8549303 1.50457573805667
0.8502778 1.5045203200796433
0.8455299 1.5033945363112033
0.8406858 1.5039269042842573
0.8357447 1.5051780011287423
0.8307058 1.5076156641829566
0.8255686 1.5106508139552635
0.8203324 1.5148659338410035
0.8149967 1.5202035369313138
0.809561 1.5259196381391167
0.804025 1.5353942466296295
0.7983883 1.5477296635666866
0.7926508 1.5608066690135058
0.7868124 1.5819307708469232
0.7808731 1.6064907122552508
0.7748329 1.642294746102416
0.7686922 1.6853081021947864
0.7624513 1.7445312252893557
0.7561107 1.825009291674656
0.7496711 1.938026132701397
0.7431332 2.096600974624403
0.736498 2.303831780274112
0.7297667 2.5111050092897007
0.7229406 2.65922008810684
0.7160212 2.7373716764422604
0.7090101 2.7698015730145955
0.7019091 2.770697861739435
0.6947203 2.7490902734177673
0.687446 2.7113510701521593
0.6800884 2.66458929648116
0.6726503 2.613998515876816
0.6651343 2.5647588510111445
0.6575435 2.518018851565443
0.649881 2.47476089323681
0.6421501 2.4331760323533405
0.6343541 2.397627707285163
0.6264968 2.365879797588342
0.6185818 2.3336849680350307
0.6106131 2.308738012511582
0.6025945 2.286834365142312
0.5945302 2.2675560801472585
0.5864244 2.250529943209661
0.5782812 2.2353036448524333
0.5701049 2.221710830984558
0.5619 2.209736454985646
0.5536707 2.1990862827389126
0.5454215 2.1898329816938986
0.5371568 2.181865092385567
0.5288809 2.174956222528448
0.5205984 2.167038071303936
0.5123136 2.162059417600678
0.5040308 2.158338639546685
0.4957543 2.1560725526384483
0.4874885 2.154763592284804
0.4792375 2.1545858696685047
0.4710055 2.1555397161372687
0.4627965 2.157303274398655
0.4546146 2.1600538644656115
0.4464636 2.1634044089862265
0.4383475 2.1675166592920587
0.43027 2.1722240957208774
0.4222347 2.1774776383510717
0.4142454 2.183728617672886
0.4063054 2.1903945096372333
0.3984181 2.198300446381107
0.3905869 2.2068239977538293
0.382815 2.215359594923266
0.3751054 2.223702695154248
0.3674611 2.2336178590805598
0.3598849 2.243595214342126
0.3523798 2.252430548308385
0.3449482 2.261838501211504
0.3375927 2.271115411734079
0.3303157 2.282005357777806
0.3231195 2.292019943957337
0.3160063 2.3014327839835045
0.3089781 2.3127826023476086
0.3020368 2.323384931599499
0.2951843 2.3339292599161743
0.288422 2.345065269211785
0.2817517 2.3561158872429337
0.2751747 2.366706240015466
0.2686922 2.3776654099083196
0.2623055 2.3877659290018394
0.2560156 2.3971745349836224
0.2498233 2.406867473001975
0.2437296 2.416871825306846
0.237735 2.4260502369106245
0.2318401 2.4351533605175475
0.2260453 2.444518910833823
0.2203511 2.4525012678674853
0.2147575 2.4612474862406675
0.2092647 2.469014204784881
0.2038728 2.475815507090766
0.1985815 2.483326015762189
0.1933908 2.489990717820655
0.1883004 2.4950050769677814
0.1833099 2.499945841298147
0.1784188 2.5067244650531144
0.1736267 2.511266011059427
0.1689329 2.51624497777562
0.1643367 2.520175752999741
0.1598374 2.5238755036758485
0.1554342 2.526165543448355
0.1511263 2.5287483749589357
0.1469126 2.532889343095036
0.1427922 2.535117052773317
0.1387641 2.5372819656180536
0.1348272 2.539457539604
0.1309804 2.539296077712061
0.1272225 2.541385210495581
0.1235523 2.54293771115436
0.1199687 2.5458379087276666
0.1164702 2.5464607667918755
0.1130558 2.5470425692804084
0.1097241 2.546759933526918
0.1064737 2.5444402749631254
0.1033033 2.544608799933607
0.1002117 2.546109701108614
0.09719734 2.5458604481189573
0.09425896 2.5469827937358005
0.09139515 2.5472085681645287
0.08860453 2.544393883457772
0.08588572 2.5451175674551245
0.08323732 2.5446834313159417
0.08065795 2.544013442757475
0.07814623 2.5439901369506503
0.0757008 2.5446710109091133
0.07332028 2.540041868282636
0.07100333 2.539816181480485
0.06874858 2.538179287075475
0.06655471 2.5393994810334255
0.06442035 2.535199630093128
0.06234424 2.536112226690472
0.06032503 2.5347377083175666
0.05836144 2.5332102753431265
0.0564522 2.5325662740978188
0.05459604 2.5304113593587685
0.05279173 2.5282079063300547
0.05103804 2.5281848711721504
0.04933375 2.5255413065481758
0.04767769 2.5185469193290473
0.04606868 2.517290048548881
0.04450558 2.515870280944117
0.04298723 2.5138587870456286
0.04151253 2.512458384584785
0.04008039 2.51187427796042
0.03868971 2.5101398265543966
0.03733944 2.5076485770363965
0.03602856 2.5076194612317875
0.03475602 2.507225970483643
0.03352084 2.506345597109266
0.03232203 2.5067136702284345
0.03115861 2.505247736480529
0.03002967 2.504353536714535
0.02893429 2.5079967137346375
0.02787153 2.5048776963703676
0.02684057 2.508857796435718
0.02584048 2.505431222822948
0.02487049 2.507220541497711
0.02392973 2.5075916042704782
0.02301743 2.507721831998056
0.02213281 2.5091761846707055
0.02127508 2.5091129410688695
0.02044353 2.511222587377497
0.01963742 2.512427739168946
0.01885604 2.514409538747139
0.0180987 2.516383881558156
0.01736475 2.519856835813323
0.0166535 2.5185930506610545
0.01596436 2.521246499555944
0.01529669 2.5230839388797617
0.01464989 2.5227115776768607
0.01402342 2.52518218019021
0.01341668 2.522547793529347
0.01282916 2.5217137686111686
0.01226035 2.52584192354884
0.01170969 2.526370899804425
0.01117671 2.5226866466930944
0.01066093 2.5230890192378346
0.01016187 2.5223858906538617
0.009679103 2.5220126865035786
0.009212199 2.523124380729059
0.008760719 2.520298963152478
0.008324253 2.5168038621343705
0.007902439 2.512724625468244
0.00749494 2.510523963664405
0.00710138 2.503951115512183
0.006721435 2.499591559694288
0.006354793 2.4954310574317846
0.006001146 2.492045945393993
0.005660213 2.4793776754662296
0.005331664 2.473926918885095
0.005015253 2.4675435985971723
0.004710797 2.4653154028496727
0.004417975 2.453704170976422
0.004136562 2.446871919930544
0.00386639 2.440618653437235
0.003607264 2.4293682856679184
0.003358972 2.4253106778466154
0.003121325 2.4209388595749273
0.002894167 2.4161125752680572
0.002677355 2.3996384197866103
0.002470752 2.3952361082179037
0.002274213 2.3936718784417295
0.002087564 2.392210511368923
0.001910677 2.375972475617916
0.001743446 2.3747754282136433
0.001585682 2.373878004713579
0.001437233 2.3735389626765007
0.001297976 2.3735356041376185
0.001167683 2.3557361966202803
0.001046133 2.3493055122642463
0.0009331728 2.346021386555145
0.0008285647 2.3413816329939077
0.0007320062 2.3357199120410645
0.0006432312 2.329146345585246
0.0005619601 2.2982606472543115
0.0004878475 2.2945474092512903
0.0004205406 2.2912537835086635
0.0003596914 2.2886472612260405
0.0003049527 2.286009850387144
0.0002559744 2.2836065092868125
0.0002124075 2.283371356430809
0.0001738948 2.3080633764558853
0.0001400858 2.306157650855143
0.0001106163 2.3620604433942236
8.514006e-05 2.521413017948772
6.335066e-05 2.46546010383711
4.497154e-05 2.116735913876868
2.973089e-05 1.8828947769153672
1.733524e-05 1.696658635516215
7.507507e-06 1.7378457857767058
-6.654066e-13 1.7695051834094024
-5.54642e-06 1.8734744235714453
-9.236621e-06 1.761517500936436
-1.090682e-05 1.688029031718895
-1.039699e-05 2.4766948006759337
-7.542267e-06 2.540407708646469
-2.176718e-06 1.5619703587696374
5.861312e-06 2.142806748618762
1.673701e-05 2.20213126941175
3.063879e-05 2.235310880166093
4.777627e-05 2.253797962760002
6.835493e-05 2.27531850352625
9.254462e-05 2.2821160928983737
0.0001205071 2.2791460046325307
0.0001524337 2.278348662901149
0.0001885378 2.2766159850049186
0.0002290317 2.274762450785861
0.0002741233 2.2731148324623236
0.0003240118 2.273156524832492
0.0003788754 2.2825061654164234
0.0004388975 2.281494425992186
0.0005043107 2.280521802634836
0.000575352 2.2815336623051232
0.000652226 2.2823818490400054
0.0007351329 2.282893068370826
0.0008243063 2.283544720605019
0.0009199789 2.2963046210679408
0.001022357 2.2980882469038892
0.001131653 2.2978415934994643
0.00124812 2.2977554133955267
0.00137201 2.2981827486614423
0.001503571 2.3081685822409916
0.00164308 2.3076079559146008
0.001790831 2.308036290283745
0.001947085 2.308870129883301
0.002112105 2.308953749906947
0.002286202 2.310170006280608
0.002469704 2.3124675838747826
0.002662945 2.3139411900917053
0.002866209 2.3146623495095984
0.00307983 2.3145610671124217
0.003304217 2.317024839726482
0.003539658 2.3185846314086804
0.003786493 2.323396807776205
0.004045244 2.325524171323744
0.00431625 2.3278525551577385
0.004599854 2.3281545323825417
0.004896524 2.330280857216292
0.005206688 2.3320538066830943
0.005530778 2.342001293478778
0.00586926 2.3433232716539294
0.006222626 2.345172722504713
0.006591374 2.346849752369357
0.006975988 2.348971293445645
0.007376967 2.3521870421297018
0.007794871 2.355524462419338
0.008230256 2.357736193767102
0.008683705 2.359462859291238
0.009155809 2.3647898769374005
0.00964714 2.368390355898185
0.01015828 2.374834831824731
0.01068987 2.3776079657688776
0.01124256 2.3832081270284546
0.01181689 2.3864786258596764
0.01241352 2.389852986069754
0.01303319 2.397970650706004
0.01367656 2.4023791560164676
0.01434431 2.407333285583274
0.01503714 2.410856457474889
0.01575585 2.416096325128308
0.01650118 2.4223302471133508
0.01727387 2.4332766815259435
0.0180747 2.4372301347336975
0.01890447 2.4440266879058883
0.01976383 2.4485206722128674
0.02065373 2.4560889206021743
0.02157492 2.462274706880885
0.02252822 2.4674326709523586
0.02351452 2.473161599887363
0.02453465 2.4777955203668767
0.02558958 2.4839639766465136
0.02668017 2.491155999076439
0.02780731 2.4951720402949413
0.02897197 2.5015312729433745
0.03017506 2.505137368702077
0.03141756 2.5090705969950102
0.03270052 2.5147089196778936
0.03402487 2.5175766592056403
0.03539169 2.520753061944808
0.03680202 2.522381837920825
0.03825697 2.5245900117649325
0.03975766 2.5275045181987146
0.0413052 2.5284511883765486
0.04290075 2.5294958342688485
0.04454551 2.529944186381499
0.04624068 2.531346610401966
0.04798741 2.531607094400994
0.04978699 2.5325885584086993
0.05164058 2.531247939834236
0.05354953 2.5308365199945007
0.05551509 2.5302053727790725
0.05753856 2.5276597623550323
0.05962132 2.5298992352011798
0.06176469 2.5287281280369234
0.06397006 2.5272374110415474
0.06623879 2.524814793771127
0.06857228 2.5220745613811175
0.070972 2.52082623129529
0.07343932 2.519828427207431
0.0759757 2.517629266210826
0.07858254 2.5165960202879516
0.08126124 2.5142962155202957
0.08401329 2.5127042809822804
0.08684009 2.5117482225016343
0.08974302 2.510318232693903
0.09272355 2.5063671413749504
0.0957831 2.5037720399413748
0.09892308 2.50034233815473
0.1021449 2.497375285663761
0.10545 2.494038354017339
0.1088397 2.491022344441906
0.1123153 2.4874659908578254
0.1158784 2.4850027469864737
0.11953 2.4808640337819883
0.1232717 2.4762126612423887
0.1271045 2.472017161465461
0.1310298 2.467150531634937
0.1350488 2.46277906008457
0.1391626 2.4581255834391254
0.1433724 2.452956984725177
0.1476792 2.4475325802873384
0.152084 2.442665357979162
0.1565879 2.436821711338107
0.1611918 2.431361253311804
0.1658966 2.425799372163962
0.1707029 2.420022850541974
0.1756117 2.4135757790374153
0.1806236 2.4086728353883307
0.1857392 2.4032436181201238
0.190959 2.3982493746466087
0.1962833 2.392372688772009
0.2017126 2.386368622700423
0.2072471 2.3806554393493804
0.2128869 2.374421644711918
0.2186321 2.3694063305045807
0.2244827 2.3646380102757973
0.2304385 2.359412449016786
0.2364992 2.3550212387727663
0.2426644 2.350633210628759
0.2489336 2.3457306160568194
0.2553061 2.3408922066778617
0.2617812 2.3361329273607816
0.2683579 2.3320093875261434
0.2750351 2.3280086468789456
0.2818118 2.3243276232693764
0.2886866 2.3220680386592814
0.2956579 2.3187264864578117
0.3027242 2.316199211224769
0.3098837 2.3146661888715228
0.3171343 2.3127697637819122
0.3244741 2.3118222769577925
0.3319006 2.3105368709350254
0.3394116 2.309884069308222
0.3470044 2.3098625777422663
0.3546764 2.310102876834361
0.3624245 2.3117477968277336
0.3702459 2.3132176721306923
0.3781371 2.3160400504274756
0.3860949 2.3187429270300344
0.3941158 2.3228171616397053
0.402196 2.3264446462190636
0.4103318 2.3318372879559406
0.4185192 2.3389534118058704
0.4267542 2.3455028393991646
0.4350325 2.35148122696281
0.4433499 2.3599526697191724
0.451702 2.369395964374194
0.4600842 2.3846128637111583
0.4684921 2.3964645491173497
0.4769208 2.4093997724508514
0.4853659 2.4233841938631064
0.4938224 2.4378757990228275
0.5022856 2.4543025008294794
0.5107508 2.4722535094162152
0.5192131 2.4886994388028536
0.5276677 2.5124707611400514
0.5361099 2.5343592562328285
0.544535 2.5617806607776576
0.5529382 2.5844483671691254
0.5613148 2.6056114286411756
0.5696605 2.621644988873082
0.5779706 2.6299463865273287
0.5862408 2.62724203527481
0.594467 2.6125360411780862
0.6026449 2.5843644313191163
0.6107705 2.54020266484324
0.61884 2.4734826671040433
0.6268495 2.380008541426118
0.6347957 2.208353349671699
0.6426749 2.0106050796543355
0.650484 1.8482355463640285
0.6582198 1.7402669039105003
0.6658794 1.6607674881934815
0.6734599 1.6024013707712859
0.6809589 1.5605074361865272
0.6883737 1.5290404827183866
0.6957022 1.5069530816190178
0.7029422 1.4883482215212525
0.7100917 1.475115939340213
0.717149 1.4669536095456546
0.7241124 1.4573578248150016
0.7309804 1.4506225799049783
0.7377516 1.4466805685480104
0.744425 1.4422511095605197
0.7509992 1.4389176283023553
0.7574736 1.4354795689213968
0.7638471 1.4333947714052446
0.7701194 1.4317315525855185
0.7762897 1.4317334144443286
0.7823577 1.430883123537058
0.7883231 1.4303713896195644
0.7941858 1.4300499545087173
0.7999457 1.4300946560730416
0.8056026 1.4310402403455496
0.8111569 1.431430782803526
0.8166086 1.4319969268195305
0.8219582 1.432831630058675
0.8272058 1.4337865403721097
0.8323522 1.4348585580074469
0.8373977 1.4363863347077312
0.8423429 1.437757382417332
0.8471887 1.4390691340398147
0.8519355 1.4406172807234063
0.8565844 1.4427489990950753
0.8611361 1.4437039996072238
0.8655915 1.4452135272284716
0.8699516 1.4468424940880904
0.8742174 1.4485775477152003
0.87839 1.4504792829777708
0.8824703 1.4522377191310074
0.8864597 1.454090796729613
0.8903591 1.4560685429028968
0.8941698 1.4582594215802986
0.8978929 1.4602641636443952
0.9015297 1.4621948982857365
0.9050814 1.4640732461749644
0.9085493 1.4661049271501845
0.9119346 1.467998031209473
0.9152388 1.4701221103063848
0.9184632 1.4720538239442607
0.921609 1.4739215716838363
0.9246777 1.4758718435676565
0.9276705 1.4778767931208805
0.9305888 1.479886453819761
0.9334339 1.48161800097711
0.9362073 1.4838264498826512
0.9389101 1.4860452790130516
0.9415439 1.4874087576227741
0.94411 1.489671609486256
0.9466096 1.4918301537169976
0.9490443 1.4939153086397137
0.9514152 1.495954206621455
0.9537238 1.4980130116677521
0.9559712 1.5001950955152479
0.958159 1.5020981239058466
0.9602882 1.5041148598019298
0.9623603 1.5065066067224158
0.9643764 1.5088602624333083
0.9663379 1.511089690304337
0.968246 1.5125114432938265
0.9701019 1.5152455673943366
0.9719069 1.5176514515087245
0.9736621 1.52021557974626
0.9753687 1.5228445458808468
0.9770279 1.5251817618818666
0.9786409 1.5280606158675534
0.9802086 1.5309905819163607
0.9817324 1.5341707684963037
0.9832131 1.5372989274048938
0.984652 1.540290956809911
0.9860501 1.5438499955922633
0.9874083 1.5475617318408275
0.9887278 1.5514411433320625
0.9900095 1.5558218336262486
0.9912544 1.5604293671340017
0.9924635 1.5651488379844567
0.9936377 1.5703737296460072
0.9947779 1.576655481982724
0.995885 1.5830884144109953
0.9969598 1.5910761634180193
0.9980033 1.6006790306324854
