VARIABLES = "x", "value"
ZONE T="Boundary Layer Data"
0.9990164 nan
1.0 nan
0.9990048 nan
0.9979793 nan
0.9969225 nan
0.9958335 nan
0.9947115 nan
0.9935555 nan
0.9923646 nan
0.9911378 nan
0.9898742 nan
0.9885728 nan
0.9872326 nan
0.9858526 nan
0.9844317 nan
0.982969 nan
0.9814633 nan
0.9799136 nan
0.9783188 nan
0.9766777 nan
0.9749893 nan
0.9732524 nan
0.9714658 nan
0.9696285 nan
0.9677391 nan
0.9657966 nan
0.9637998 nan
0.9617475 nan
0.9596384 nan
0.9574713 nan
0.9552451 nan
0.9529585 nan
0.9506102 nan
0.9481991 nan
0.945724 nan
0.9431835 nan
0.9405765 nan
0.9379018 nan
0.935158 nan
0.932344 nan
0.9294586 nan
0.9265005 nan
0.9234685 nan
0.9203615 nan
0.9171781 nan
0.9139173 nan
0.9105778 nan
0.9071584 nan
0.903658 nan
0.9000755 nan
0.8964096 nan
0.8926593 nan
0.8888235 nan
0.8849011 nan
0.880891 nan
0.8767921 nan
0.8726034 nan
0.8683238 nan
0.8639524 nan
0.8594882 nan
0.8549303 nan
0.8502778 nan
0.8455299 nan
0.8406858 nan
0.8357447 nan
0.8307058 nan
0.8255686 nan
0.8203324 nan
0.8149967 nan
0.809561 nan
0.804025 nan
0.7983883 nan
0.7926508 nan
0.7868124 nan
0.7808731 nan
0.7748329 nan
0.7686922 nan
0.7624513 nan
0.7561107 nan
0.7496711 nan
0.7431332 nan
0.736498 nan
0.7297667 nan
0.7229406 nan
0.7160212 nan
0.7090101 nan
0.7019091 nan
0.6947203 nan
0.687446 nan
0.6800884 nan
0.6726503 nan
0.6651343 nan
0.6575435 nan
0.649881 nan
0.6421501 nan
0.6343541 nan
0.6264968 nan
0.6185818 nan
0.6106131 nan
0.6025945 nan
0.5945302 nan
0.5864244 nan
0.5782812 nan
0.5701049 nan
0.5619 nan
0.5536707 nan
0.5454215 nan
0.5371568 nan
0.5288809 nan
0.5205984 nan
0.5123136 nan
0.5040308 nan
0.4957543 nan
0.4874885 nan
0.4792375 nan
0.4710055 nan
0.4627965 nan
0.4546146 nan
0.4464636 nan
0.4383475 nan
0.43027 nan
0.4222347 nan
0.4142454 nan
0.4063054 nan
0.3984181 nan
0.3905869 nan
0.382815 nan
0.3751054 nan
0.3674611 nan
0.3598849 nan
0.3523798 nan
0.3449482 nan
0.3375927 nan
0.3303157 nan
0.3231195 nan
0.3160063 nan
0.3089781 nan
0.3020368 nan
0.2951843 nan
0.288422 nan
0.2817517 nan
0.2751747 nan
0.2686922 nan
0.2623055 nan
0.2560156 nan
0.2498233 nan
0.2437296 nan
0.237735 nan
0.2318401 nan
0.2260453 nan
0.2203511 nan
0.2147575 nan
0.2092647 nan
0.2038728 nan
0.1985815 nan
0.1933908 nan
0.1883004 nan
0.1833099 nan
0.1784188 nan
0.1736267 nan
0.1689329 nan
0.1643367 nan
0.1598374 nan
0.1554342 nan
0.1511263 nan
0.1469126 nan
0.1427922 nan
0.1387641 nan
0.1348272 nan
0.1309804 nan
0.1272225 nan
0.1235523 nan
0.1199687 nan
0.1164702 nan
0.1130558 nan
0.1097241 nan
0.1064737 nan
0.1033033 nan
0.1002117 nan
0.09719734 nan
0.09425896 nan
0.09139515 nan
0.08860453 nan
0.08588572 nan
0.08323732 nan
0.08065795 nan
0.07814623 nan
0.0757008 nan
0.07332028 nan
0.07100333 nan
0.06874858 nan
0.06655471 nan
0.06442035 nan
0.06234424 nan
0.06032503 nan
0.05836144 nan
0.0564522 nan
0.05459604 nan
0.05279173 nan
0.05103804 nan
0.04933375 nan
0.04767769 nan
0.04606868 nan
0.04450558 nan
0.04298723 nan
0.04151253 nan
0.04008039 nan
0.03868971 nan
0.03733944 nan
0.03602856 nan
0.03475602 nan
0.03352084 nan
0.03232203 nan
0.03115861 nan
0.03002967 nan
0.02893429 nan
0.02787153 nan
0.02684057 nan
0.02584048 nan
0.02487049 nan
0.02392973 nan
0.02301743 nan
0.02213281 nan
0.02127508 nan
0.02044353 nan
0.01963742 nan
0.01885604 nan
0.0180987 nan
0.01736475 nan
0.0166535 nan
0.01596436 nan
0.01529669 nan
0.01464989 nan
0.01402342 nan
0.01341668 nan
0.01282916 nan
0.01226035 nan
0.01170969 nan
0.01117671 nan
0.01066093 nan
0.01016187 nan
0.009679103 nan
0.009212199 nan
0.008760719 nan
0.008324253 nan
0.007902439 nan
0.00749494 nan
0.00710138 nan
0.006721435 nan
0.006354793 nan
0.006001146 nan
0.005660213 nan
0.005331664 nan
0.005015253 nan
0.004710797 nan
0.004417975 nan
0.004136562 nan
0.00386639 nan
0.003607264 nan
0.003358972 nan
0.003121325 nan
0.002894167 nan
0.002677355 nan
0.002470752 nan
0.002274213 nan
0.002087564 nan
0.001910677 nan
0.001743446 nan
0.001585682 nan
0.001437233 nan
0.001297976 nan
0.001167683 nan
0.001046133 nan
0.0009331728 nan
0.0008285647 nan
0.0007320062 nan
0.0006432312 nan
0.0005619601 nan
0.0004878475 nan
0.0004205406 nan
0.0003596914 nan
0.0003049527 nan
0.0002559744 nan
0.0002124075 nan
0.0001738948 nan
0.0001400858 nan
0.0001106163 nan
8.514006e-05 nan
6.335066e-05 nan
4.497154e-05 nan
2.973089e-05 nan
1.733524e-05 nan
7.507507e-06 nan
-6.654066e-13 nan
-5.54642e-06 nan
-9.236621e-06 nan
-1.090682e-05 nan
-1.039699e-05 nan
-7.542267e-06 nan
-2.176718e-06 nan
5.861312e-06 nan
1.673701e-05 nan
3.063879e-05 nan
4.777627e-05 nan
6.835493e-05 nan
9.254462e-05 nan
0.0001205071 nan
0.0001524337 nan
0.0001885378 nan
0.0002290317 nan
0.0002741233 nan
0.0003240118 nan
0.0003788754 nan
0.0004388975 nan
0.0005043107 nan
0.000575352 nan
0.000652226 nan
0.0007351329 nan
0.0008243063 nan
0.0009199789 nan
0.001022357 nan
0.001131653 nan
0.00124812 nan
0.00137201 nan
0.001503571 nan
0.00164308 nan
0.001790831 nan
0.001947085 nan
0.002112105 nan
0.002286202 nan
0.002469704 nan
0.002662945 nan
0.002866209 nan
0.00307983 nan
0.003304217 nan
0.003539658 nan
0.003786493 nan
0.004045244 nan
0.00431625 nan
0.004599854 nan
0.004896524 nan
0.005206688 nan
0.005530778 nan
0.00586926 nan
0.006222626 nan
0.006591374 nan
0.006975988 nan
0.007376967 nan
0.007794871 nan
0.008230256 nan
0.008683705 nan
0.009155809 nan
0.00964714 nan
0.01015828 nan
0.01068987 nan
0.01124256 nan
0.01181689 nan
0.01241352 nan
0.01303319 nan
0.01367656 nan
0.01434431 nan
0.01503714 nan
0.01575585 nan
0.01650118 nan
0.01727387 nan
0.0180747 nan
0.01890447 nan
0.01976383 nan
0.02065373 nan
0.02157492 nan
0.02252822 nan
0.02351452 nan
0.02453465 nan
0.02558958 nan
0.02668017 nan
0.02780731 nan
0.02897197 nan
0.03017506 nan
0.03141756 nan
0.03270052 nan
0.03402487 nan
0.03539169 nan
0.03680202 nan
0.03825697 nan
0.03975766 nan
0.0413052 nan
0.04290075 nan
0.04454551 nan
0.04624068 nan
0.04798741 nan
0.04978699 nan
0.05164058 nan
0.05354953 nan
0.05551509 nan
0.05753856 nan
0.05962132 nan
0.06176469 nan
0.06397006 nan
0.06623879 nan
0.06857228 nan
0.070972 nan
0.07343932 nan
0.0759757 nan
0.07858254 nan
0.08126124 nan
0.08401329 nan
0.08684009 nan
0.08974302 nan
0.09272355 nan
0.0957831 nan
0.09892308 nan
0.1021449 nan
0.10545 nan
0.1088397 nan
0.1123153 nan
0.1158784 nan
0.11953 nan
0.1232717 nan
0.1271045 nan
0.1310298 nan
0.1350488 nan
0.1391626 nan
0.1433724 nan
0.1476792 nan
0.152084 nan
0.1565879 nan
0.1611918 nan
0.1658966 nan
0.1707029 nan
0.1756117 nan
0.1806236 nan
0.1857392 nan
0.190959 nan
0.1962833 nan
0.2017126 nan
0.2072471 nan
0.2128869 nan
0.2186321 nan
0.2244827 nan
0.2304385 nan
0.2364992 nan
0.2426644 nan
0.2489336 nan
0.2553061 nan
0.2617812 nan
0.2683579 nan
0.2750351 nan
0.2818118 nan
0.2886866 nan
0.2956579 nan
0.3027242 nan
0.3098837 nan
0.3171343 nan
0.3244741 nan
0.3319006 nan
0.3394116 nan
0.3470044 nan
0.3546764 nan
0.3624245 nan
0.3702459 nan
0.3781371 nan
0.3860949 nan
0.3941158 nan
0.402196 nan
0.4103318 nan
0.4185192 nan
0.4267542 nan
0.4350325 nan
0.4433499 nan
0.451702 nan
0.4600842 nan
0.4684921 nan
0.4769208 nan
0.4853659 nan
0.4938224 nan
0.5022856 nan
0.5107508 nan
0.5192131 nan
0.5276677 nan
0.5361099 nan
0.544535 nan
0.5529382 nan
0.5613148 nan
0.5696605 nan
0.5779706 nan
0.5862408 nan
0.594467 nan
0.6026449 nan
0.6107705 nan
0.61884 nan
0.6268495 nan
0.6347957 nan
0.6426749 nan
0.650484 nan
0.6582198 nan
0.6658794 nan
0.6734599 nan
0.6809589 nan
0.6883737 nan
0.6957022 nan
0.7029422 nan
0.7100917 nan
0.717149 nan
0.7241124 nan
0.7309804 nan
0.7377516 nan
0.744425 nan
0.7509992 nan
0.7574736 nan
0.7638471 nan
0.7701194 nan
0.7762897 nan
0.7823577 nan
0.7883231 nan
0.7941858 nan
0.7999457 nan
0.8056026 nan
0.8111569 nan
0.8166086 nan
0.8219582 nan
0.8272058 nan
0.8323522 nan
0.8373977 nan
0.8423429 nan
0.8471887 nan
0.8519355 nan
0.8565844 nan
0.8611361 nan
0.8655915 nan
0.8699516 nan
0.8742174 nan
0.87839 nan
0.8824703 nan
0.8864597 nan
0.8903591 nan
0.8941698 nan
0.8978929 nan
0.9015297 nan
0.9050814 nan
0.9085493 nan
0.9119346 nan
0.9152388 nan
0.9184632 nan
0.921609 nan
0.9246777 nan
0.9276705 nan
0.9305888 nan
0.9334339 nan
0.9362073 nan
0.9389101 nan
0.9415439 nan
0.94411 nan
0.9466096 nan
0.9490443 nan
0.9514152 nan
0.9537238 nan
0.9559712 nan
0.958159 nan
0.9602882 nan
0.9623603 nan
0.9643764 nan
0.9663379 nan
0.968246 nan
0.9701019 nan
0.9719069 nan
0.9736621 nan
0.9753687 nan
0.9770279 nan
0.9786409 nan
0.9802086 nan
0.9817324 nan
0.9832131 nan
0.984652 nan
0.9860501 nan
0.9874083 nan
0.9887278 nan
0.9900095 nan
0.9912544 nan
0.9924635 nan
0.9936377 nan
0.9947779 nan
0.995885 nan
0.9969598 nan
0.9980033 nan
