VARIABLES = "x", "value"
ZONE T="Boundary Layer Data"
0.9990164 0.8683690981480282
1.0 0.8310631139778384
0.9990048 0.8286378625697783
0.9979793 0.826196147075456
0.9969225 0.8237426285326918
0.9958335 0.8213012436997269
0.9947115 0.8188898929060497
0.9935555 0.8165237827271097
0.9923646 0.814216085551224
0.9911378 0.8119793273684717
0.9898742 0.8098260643446827
0.9885728 0.807765974955929
0.9872326 0.8058054580888281
0.9858526 0.8039492940889467
0.9844317 0.802201715505042
0.982969 0.8005660893036076
0.9814633 0.7990456212376589
0.9799136 0.797643256341286
0.9783188 0.7963626937126124
0.9766777 0.7952071911380678
0.9749893 0.7941801701046594
0.9732524 0.7932852157840063
0.9714658 0.792525871745836
0.9696285 0.7919058316440469
0.9677391 0.7914285302614649
0.9657966 0.7910967393075578
0.9637998 0.7909131646818354
0.9617475 0.7908800496911779
0.9596384 0.7909994811465365
0.9574713 0.7912734985286383
0.9552451 0.7917041910701418
0.9529585 0.7922945735865428
0.9506102 0.7930488074667168
0.9481991 0.7939719301637637
0.945724 0.7950685405088325
0.9431835 0.7963428164992646
0.9405765 0.7977983938360587
0.9379018 0.7994393752805101
0.935158 0.8005357315172207
0.932344 0.802598906203557
0.9294586 0.8048386102685603
0.9265005 0.8072628909163396
0.9234685 0.8098807210740149
0.9203615 0.8127010590627534
0.9171781 0.8157280533058279
0.9139173 0.8186443060758989
0.9105778 0.8221195891081783
0.9071584 0.8257810224639762
0.903658 0.829643591623831
0.9000755 0.8337276004569959
0.8964096 0.8379993136704409
0.8926593 0.8425247118241814
0.8888235 0.847248993713259
0.8849011 0.8522143307678239
0.880891 0.857558441156403
0.8767921 0.8629294215068577
0.8726034 0.8685208018762072
0.8683238 0.8746280427304169
0.8639524 0.8805936163954006
0.8594882 0.8867753618549514
0.8549303 0.8935435563927536
0.8502778 0.9000670304794526
0.8455299 0.9072706321492501
0.8406858 0.9141445996784371
0.8357447 0.9211984033980302
0.8307058 0.9289023843327403
0.8255686 0.9362286288056993
0.8203324 0.9442204901434251
0.8149967 0.9517642292399153
0.809561 0.9599302282608043
0.804025 0.9682204352713074
0.7983883 0.9758703979099275
0.7926508 0.9841954935910294
0.7868124 0.9925804148220637
0.7808731 1.0010186467490252
0.7748329 1.008086252437806
0.7686922 1.0162205128666513
0.7624513 1.024218169994894
0.7561107 1.0324097209974392
0.7496711 1.0408682690558158
0.7431332 1.0495115880625665
0.736498 1.0580502290368825
0.7297667 1.066839510932755
0.7229406 1.075115525972093
0.7160212 1.082539791337487
0.7090101 1.0891070669899447
0.7019091 1.095181719897319
0.6947203 1.1006029389169785
0.687446 1.105676559645184
0.6800884 1.1104332297763608
0.6726503 1.1150188615828927
0.6651343 1.1190589331970904
0.6575435 1.1227163720811058
0.649881 1.1259745270673132
0.6421501 1.1289661500026562
0.6343541 1.1313361785509013
0.6264968 1.1332580533627896
0.6185818 1.135103854188016
0.6106131 1.1360834757401863
0.6025945 1.1365759904764592
0.5945302 1.1366091645680092
0.5864244 1.1362193277148325
0.5782812 1.1354162864066504
0.5701049 1.1341888374806306
0.5619 1.1325455226778163
0.5536707 1.1305137450741891
0.5454215 1.1281104017795092
0.5371568 1.1253698321926937
0.5288809 1.122331306425871
0.5205984 1.1191164358489263
0.5123136 1.115502768056711
0.5040308 1.1116193998152155
0.4957543 1.107510535996928
0.4874885 1.1032283571208947
0.4792375 1.098802907367304
0.4710055 1.0942551475237774
0.4627965 1.0896032711955244
0.4546146 1.0848773775294644
0.4464636 1.0801124224728258
0.4383475 1.0753373619757476
0.43027 1.0705785927762435
0.4222347 1.0658511309728955
0.4142454 1.061166894284472
0.4063054 1.0565400647672347
0.3984181 1.05198396125769
0.3905869 1.0475170411835946
0.382815 1.043159561092746
0.3751054 1.0389244056391795
0.3674611 1.0348513559183263
0.3598849 1.0308823359403483
0.3523798 1.0270581952383657
0.3449482 1.0233842440488128
0.3375927 1.019859563805375
0.3303157 1.0164879455154825
0.3231195 1.0132754717983663
0.3160063 1.0102216537270152
0.3089781 1.0073255143944007
0.3020368 1.0045869056171657
0.2951843 1.0020033252151301
0.288422 0.9995751553668252
0.2817517 0.997333790555325
0.2751747 0.9952144223646378
0.2686922 0.9932451697556703
0.2623055 0.9914235861997888
0.2560156 0.9897442332272224
0.2498233 0.988165869830952
0.2437296 0.9867475858409726
0.237735 0.9854485334961102
0.2318401 0.9842620756889765
0.2260453 0.9832546273016027
0.2203511 0.9822762556110637
0.2147575 0.9813268977038815
0.2092647 0.9805405031351241
0.2038728 0.9798418423853954
0.1985815 0.9792278882196706
0.1933908 0.9786779547917658
0.1883004 0.9782947719015803
0.1833099 0.9778685237112716
0.1784188 0.9773992200105055
0.1736267 0.9770757175156244
0.1689329 0.9767938128933804
0.1643367 0.9765491444804171
0.1598374 0.9763538953704953
0.1554342 0.9762898012637518
0.1511263 0.9761224584734423
0.1469126 0.9758547429776316
0.1427922 0.9757156858728276
0.1387641 0.9755825619805049
0.1348272 0.9754528207512431
0.1309804 0.9754912197959787
0.1272225 0.9753589130940978
0.1235523 0.9752228246352141
0.1199687 0.9749590372365725
0.1164702 0.9748221116359779
0.1130558 0.9746798138043591
0.1097241 0.9745273691700134
0.1064737 0.9745492936258475
0.1033033 0.9743574609829657
0.1002117 0.9740006793535632
0.09719734 0.9737565754203804
0.09425896 0.973483827228098
0.09139515 0.9731864050417907
0.08860453 0.9730776006346052
0.08588572 0.9727436518835135
0.08323732 0.9723953375992082
0.08065795 0.9720352045267292
0.07814623 0.9715078668205999
0.0757008 0.9711811148211028
0.07332028 0.970910615783523
0.07100333 0.970455919118849
0.06874858 0.9699618605516507
0.06655471 0.9694303941746927
0.06442035 0.9688598966857178
0.06234424 0.9682489908332516
0.06032503 0.9676023354187452
0.05836144 0.9670049947187295
0.0564522 0.966290585820487
0.05459604 0.9655429247232046
0.05279173 0.9647549521056682
0.05103804 0.9639221719356859
0.04933375 0.9630479790804298
0.04767769 0.962219424168339
0.04606868 0.961243556147062
0.04450558 0.9602077272920532
0.04298723 0.9591138939268892
0.04151253 0.957962400798283
0.04008039 0.9568515593093007
0.03868971 0.9555953273434629
0.03733944 0.9542824931906537
0.03602856 0.9529069025487223
0.03475602 0.9514767252129975
0.03352084 0.9500000628342559
0.03232203 0.9485920942428837
0.03115861 0.9470509679317793
0.03002967 0.9454704653041786
0.02893429 0.9438533758111002
0.02787153 0.9422087681994102
0.02684057 0.9405433193082018
0.02584048 0.9389816567047197
0.02487049 0.9372809906720877
0.02392973 0.935557012822682
0.02301743 0.9338075006555099
0.02213281 0.9320327293083436
0.02127508 0.9303723343055994
0.02044353 0.9285677086027759
0.01963742 0.9267501378102999
0.01885604 0.9249242232012145
0.0180987 0.9230902202854767
0.01736475 0.9212527852755725
0.0166535 0.9195835326083704
0.01596436 0.9177647984858919
0.01529669 0.9159528496995302
0.01464989 0.9141365254047833
0.01402342 0.9123054143074785
0.01341668 0.9106590540941928
0.01282916 0.9087765716688178
0.01226035 0.9068326172605945
0.01170969 0.9048400442026922
0.01117671 0.9030409021825091
0.01066093 0.9009614042252254
0.01016187 0.8988167065953381
0.009679103 0.8965894292412776
0.009212199 0.8942649918285854
0.008760719 0.8921677227457459
0.008324253 0.8896952696885041
0.007902439 0.8870882938760325
0.00749494 0.8842928173334103
0.00710138 0.8816698554535989
0.006721435 0.8784293062389311
0.006354793 0.8748885500085254
0.006001146 0.8709909353115507
0.005660213 0.8672050300470183
0.005331664 0.8626060718326646
0.005015253 0.8575643091297119
0.004710797 0.8519670175878524
0.004417975 0.8464271621065158
0.004136562 0.8397881029067868
0.00386639 0.8324586785061826
0.003607264 0.8250273881859923
0.003358972 0.8161682656100089
0.003121325 0.8064950226068478
0.002894167 0.7959257745128373
0.002677355 0.7851509437399474
0.002470752 0.7725356841948532
0.002274213 0.75879427811107
0.002087564 0.7439222235313917
0.001910677 0.7287186173049375
0.001743446 0.7113780934630192
0.001585682 0.692774781455799
0.001437233 0.6729112809698244
0.001297976 0.6517890679065812
0.001167683 0.6304258677127788
0.001046133 0.6071302154073375
0.0009331728 0.5828027566208829
0.0008285647 0.5575166721016063
0.0007320062 0.5314694046648876
0.0006432312 0.5048094508373828
0.0005619601 0.4784153781892886
0.0004878475 0.4508775532973226
0.0004205406 0.4231585419979136
0.0003596914 0.39542076348928623
0.0003049527 0.36780164428248546
0.0002559744 0.34042432673268225
0.0002124075 0.31340184594601544
0.0001738948 0.2864178841280902
0.0001400858 0.2604820974509565
0.0001106163 0.23454967236458144
8.514006e-05 0.2091354393751095
6.335066e-05 0.18579515413302386
4.497154e-05 0.16423460297584183
2.973089e-05 0.14341991967939322
1.733524e-05 0.1235895685308837
7.507507e-06 0.1028008834180451
-6.654066e-13 0.08274263828926534